LAMMPS data file Created by LigParGen - (Written by Leela S. Dodda)

      16 atoms
      16 bonds
      25 angles
      33 dihedrals
       8 impropers
 
      16 atom types
      16 bond types
      25 angle types
      33 dihedral types
       8 improper types
 
   -2.838160    47.161840 xlo xhi
   -1.156240    48.843760 ylo yhi
   -1.331860    48.668140 zlo zhi

Masses

       1     32.060  
       2     12.011  
       3     12.011  
       4     12.011  
       5     12.011  
       6     12.011  
       7     12.011  
       8     12.011  
       9      1.008  
      10      1.008  
      11      1.008  
      12      1.008  
      13      1.008  
      14      1.008  
      15      1.008  
      16      1.008  

Pair Coeffs 

       1      0.425  3.6000000 
       2      0.066  3.5000000 
       3      0.070  3.5500000 
       4      0.070  3.5500000 
       5      0.070  3.5500000 
       6      0.070  3.5500000 
       7      0.070  3.5500000 
       8      0.070  3.5500000 
       9      0.000  0.0000000 
      10      0.030  2.5000000 
      11      0.030  2.5000000 
      12      0.030  2.4200000 
      13      0.030  2.4200000 
      14      0.030  2.4200000 
      15      0.030  2.4200000 
      16      0.030  2.4200000 

Bond Coeffs 

       1   222.0000     1.8100 
       2   317.0000     1.5100 
       3   469.0000     1.4000 
       4   469.0000     1.4000 
       5   469.0000     1.4000 
       6   469.0000     1.4000 
       7   469.0000     1.4000 
       8   274.0000     1.3360 
       9   340.0000     1.0900 
      10   340.0000     1.0900 
      11   367.0000     1.0800 
      12   367.0000     1.0800 
      13   367.0000     1.0800 
      14   367.0000     1.0800 
      15   367.0000     1.0800 
      16   469.0000     1.4000 

Angle Coeffs 

       1     51.650    110.580
       2     70.000    120.000
       3     63.000    120.000
       4     63.000    120.000
       5     63.000    120.000
       6     70.000    120.000
       7     44.000     96.000
       8     35.000    109.500
       9     35.000    109.500
      10     35.000    120.000
      11     35.000    120.000
      12     35.000    120.000
      13     35.000    120.000
      14     35.000    120.000
      15     35.000    120.000
      16     35.000    120.000
      17     63.000    120.000
      18     35.000    120.000
      19     35.000    120.000
      20     63.000    120.000
      21     63.000    120.000
      22     35.000    120.000
      23     35.000    109.500
      24     33.000    107.800
      25     35.000    109.500

Dihedral Coeffs  

       1      0.000      0.000      0.000      0.000 
       2      0.000      7.250      0.000      0.000 
       3      0.000      7.250      0.000      0.000 
       4      0.000      7.250      0.000      0.000 
       5     -0.759     -0.282      0.680      0.000 
       6      0.000      0.000      0.000      0.000 
       7      0.000      7.250      0.000      0.000 
       8      0.000      7.250      0.000      0.000 
       9      0.000      7.250      0.000      0.000 
      10      0.000      7.250      0.000      0.000 
      11      0.000      7.250      0.000      0.000 
      12      0.000      7.250      0.000      0.000 
      13      0.000      7.250      0.000      0.000 
      14      0.000      7.250      0.000      0.000 
      15      0.000      7.250      0.000      0.000 
      16      0.000      0.000      0.000      0.000 
      17      0.000      7.250      0.000      0.000 
      18      0.000      7.250      0.000      0.000 
      19      0.000      0.000      0.480      0.000 
      20      0.000      7.250      0.000      0.000 
      21      0.000      0.000      0.000      0.000 
      22      0.000      7.250      0.000      0.000 
      23      0.000      7.250      0.000      0.000 
      24      0.000      7.250      0.000      0.000 
      25      0.000      7.250      0.000      0.000 
      26      0.000      0.000      0.480      0.000 
      27      0.000      7.250      0.000      0.000 
      28      0.000      0.000      0.000      0.000 
      29      0.000      7.250      0.000      0.000 
      30      0.000      7.250      0.000      0.000 
      31      0.000      7.250      0.000      0.000 
      32      0.000      0.000      0.000      0.000 
      33      0.000      7.250      0.000      0.000 

Improper Coeffs 

       1      2.500      -1       2 
       2      0.000      -1       2 
       3      0.000      -1       2 
       4      2.500      -1       2 
       5      2.500      -1       2 
       6      2.500      -1       2 
       7      2.500      -1       2 
       8      2.500      -1       2 

Atoms 

     1      1      1 -0.24810000    1.000  1.00000  0.00000
     2      1      2 -0.11550000   -0.813  1.00000  0.00000
     3      1      3 -0.07860000   -1.379  1.00000  1.39475
     4      1      4 -0.12480000   -1.604  2.20807  2.07165
     5      1      5 -0.14900000   -2.127  2.20801  3.36562
     6      1      6 -0.13830000   -2.432  1.00227  3.99455
     7      1      7 -0.14890000   -2.212 -0.20248  3.32960
     8      1      8 -0.12460000   -1.689 -0.20704  2.03827
     9      1      9 0.14040000    1.146  1.00168 -1.33186
    10      1     10 0.11500000   -1.165  0.12164 -0.55226
    11      1     11 0.11500000   -1.167  1.87909 -0.54983
    12      1     12 0.15330000   -1.370  3.15657  1.59323
    13      1     13 0.15130000   -2.296  3.14948  3.88144
    14      1     14 0.14950000   -2.838  1.00343  5.00234
    15      1     15 0.15060000   -2.448 -1.14289  3.82056
    16      1     16 0.15270000   -1.523 -1.15624  1.53370

Bonds 

     1      1      2      1
     2      2      3      2
     3      3      4      3
     4      4      5      4
     5      5      6      5
     6      6      7      6
     7      7      8      3
     8      8      9      1
     9      9     10      2
    10     10     11      2
    11     11     12      4
    12     12     13      5
    13     13     14      6
    14     14     15      7
    15     15     16      8
    16     16      8      7

Angles 

     1      1      1      2      3
     2      2      2      3      4
     3      3      3      4      5
     4      4      4      5      6
     5      5      5      6      7
     6      6      2      3      8
     7      7      2      1      9
     8      8      1      2     10
     9      9      1      2     11
    10     10      3      4     12
    11     11      4      5     13
    12     12      5      6     14
    13     13      6      7     15
    14     14      3      8     16
    15     15      7      6     14
    16     16      5      4     12
    17     17      3      8      7
    18     18      8      7     15
    19     19      7      8     16
    20     20      4      3      8
    21     21      6      7      8
    22     22      6      5     13
    23     23      3      2     11
    24     24     10      2     11
    25     25      3      2     10

Dihedrals

     1      1      4      3      2      1 
     2      2      5      4      3      2 
     3      3      6      5      4      3 
     4      4      7      6      5      4 
     5      5      9      1      2      3 
     6      6     11      2      3      8 
     7      7     12      4      3      8 
     8      8     16      8      7      6 
     9      9     12      4      3      2 
    10     10     16      8      3      2 
    11     11     13      5      4     12 
    12     12     16      8      7     15 
    13     13     13      5      6      7 
    14     14     16      8      3      4 
    15     15      7      8      3      4 
    16     16     11      2      3      4 
    17     17      6      7      8      3 
    18     18      7      8      3      2 
    19     19     11      2      1      9 
    20     20     14      6      5     13 
    21     21     10      2      3      8 
    22     22      8      3      4      5 
    23     23     12      4      5      6 
    24     24     14      6      5      4 
    25     25     14      6      7      8 
    26     26     10      2      1      9 
    27     27     15      7      8      3 
    28     28      8      3      2      1 
    29     29     13      5      4      3 
    30     30     15      7      6     14 
    31     31      8      7      6      5 
    32     32     10      2      3      4 
    33     33     15      7      6      5 

Impropers

     1      1      3      2      4      8 
     2      2      2      1     10      3 
     3      3      2      1     11      3 
     4      4      4      3     12      5 
     5      5      5      4     13      6 
     6      6      6      5     14      7 
     7      7      7      8     15      6 
     8      8      8      3      7     16 
